# vtk DataFile Version 4.2
vtk output
ASCII
DATASET POLYDATA
POINTS 20119 float
70.9096 -12.3748 1411.43 71.6666 -13.5194 1411.24 72.0868 -12.6637 1411.43 
70.3795 -12.1415 1411.48 69.7558 -12.6167 1411.42 70.9122 -13.6357 1411.22 
69.7627 -13.6877 1411.28 69.0295 -12.7625 1411.47 68.283 -13.5623 1411.51 
72.5375 -14.0744 1411.22 73.4457 -13.5421 1411.42 70.8432 -14.6915 1411.11 
69.9854 -14.8986 1411.17 68.3279 -14.7901 1411.45 72.144 -15.0789 1411.06 
74.0675 -15.1363 1411.25 74.4157 -14.1333 1411.48 69.3252 -15.9496 1411.24 
71.1427 -16.0596 1411.01 73.2219 -15.9249 1411.04 72.1031 -16.0329 1410.98 
76.002 -16.4607 1411.39 75.8887 -15.0398 1411.62 70.5436 -17.6329 1411.04 
68.0967 -16.2334 1411.49 68.9387 -17.5831 1411.32 71.8984 -17.595 1410.91 
74.8711 -17.3962 1411.07 75.9905 -18.0499 1411.15 73.6862 -17.7056 1410.91 
71.2519 -18.2903 1410.94 73.0798 -18.0865 1410.86 69.7176 -18.9676 1411.17 
77.869 -18.2966 1411.48 72.4147 -19.4907 1410.83 73.5137 -19.6445 1410.79 
75.2712 -18.9983 1410.93 68.112 -19.0775 1411.51 76.9511 -19.6486 1411.09 
69.508 -19.6892 1411.24 71.2485 -19.6653 1410.95 74.5412 -19.7587 1410.81 
79.4023 -19.9351 1411.53 72.0432 -20.7242 1410.89 73.4883 -20.9024 1410.78 
76.1068 -20.5589 1410.88 78.109 -21.0396 1411.13 68.5977 -20.5855 1411.46 
70.2364 -20.6524 1411.15 74.5915 -21.2707 1410.78 75.3928 -21.0338 1410.8 
69.1319 -21.4541 1411.41 71.4841 -21.8781 1411.05 79.7224 -21.0427 1411.44 
73.0676 -22.0338 1410.88 76.7869 -21.7361 1410.89 70.2244 -22.2818 1411.3 
75.0069 -22.4234 1410.82 76.2589 -22.5281 1410.85 78.743 -22.3955 1411.13 
79.9661 -22.3495 1411.37 68.9623 -22.5307 1411.54 80.8834 -22.2151 1411.59 
71.4432 -23.5868 1411.3 73.5363 -23.3894 1411.01 74.978 -23.3627 1410.91 
77.5427 -22.7742 1410.95 69.1597 -23.5534 1411.63 78.9556 -23.6493 1411.15 
80.6026 -23.592 1411.46 74.4867 -24.0766 1411.05 76.7793 -23.9009 1410.96 
78.2156 -24.0518 1411.07 70.6221 -24.4121 1411.54 80.0431 -24.2265 1411.36 
75.6653 -24.8274 1411.11 77.7447 -24.8696 1411.12 73.1981 -25.6735 1411.48 
73.8324 -25.1544 1411.32 77.1828 -25.6004 1411.22 78.8832 -25.2164 1411.26 
80.4903 -25.6362 1411.55 71.7198 -26.0081 1411.67 75.6052 -26.7307 1411.5 
76.2726 -26.2089 1411.35 78.0902 -26.313 1411.37 79.1572 -26.7126 1411.51 
79.7871 -26.5395 1411.55 77.4001 -28.1283 1411.69 68.6057 -10.0766 1412.11 
67.5027 -8.39046 1412.8 67.0384 -9.39278 1412.52 71.3033 -9.0006 1412.49 
72.408 -10.1053 1412.21 72.2723 -8.79084 1412.64 69.025 -8.81654 1412.53 
69.3187 -10.3319 1411.99 70.46 -9.12928 1412.4 73.7303 -9.57611 1412.54 
66.7497 -10.1097 1412.36 71.6063 -11.0522 1411.83 72.9861 -11.2801 1411.93 
65.1395 -10.712 1412.55 66.8999 -11.248 1412.07 68.7266 -11.2271 1411.79 
70.9182 -11.2241 1411.73 74.3698 -10.971 1412.23 74.923 -10.2117 1412.54 
73.8762 -12.2205 1411.82 75.9108 -11.3562 1412.41 65.3881 -11.9923 1412.3 
67.8146 -12.0302 1411.77 63.8777 -11.7445 1412.66 64.0679 -12.7379 1412.52 
66.9508 -12.4211 1411.89 77.2422 -12.724 1412.38 76.6904 -11.721 1412.49 
77.7269 -12.5224 1412.55 66.4755 -13.1434 1411.94 75.0708 -13.3718 1411.78 
76.5646 -13.7219 1412.02 66.3245 -14.7073 1411.92 64.019 -13.8121 1412.46 
78.582 -14.0121 1412.43 67.1525 -14.2209 1411.73 77.5742 -14.9988 1412 
64.9891 -15.3728 1412.21 62.8625 -15.8108 1412.62 66.595 -16.1375 1411.85 
79.4884 -14.4452 1412.59 79.8641 -15.5006 1412.45 77.6397 -16.204 1411.79 
79.1325 -16.3433 1412.1 63.3416 -17.0786 1412.51 64.7491 -16.5163 1412.25 
66.9894 -17.6122 1411.76 80.9802 -17.4767 1412.34 81.5776 -17.0432 1412.62 
62.0663 -17.1117 1412.73 64.1423 -18.2383 1412.35 65.9099 -18.2007 1412 
79.8647 -18.3016 1411.91 82.5762 -19.1084 1412.46 65.3478 -18.9797 1412.12 
67.0891 -18.9509 1411.74 81.3791 -19.2547 1412.11 63.4096 -19.2658 1412.5 
65.6477 -20.8997 1412.1 66.2848 -20.204 1411.94 82.7572 -20.5917 1412.26 
81.3555 -20.7522 1411.87 63.1298 -20.3587 1412.58 83.9112 -21.3454 1412.5 
65.2911 -21.7851 1412.21 67.3628 -22.0964 1411.82 82.8541 -21.7899 1412.14 
65.8424 -22.9332 1412.18 63.2357 -22.596 1412.68 82.2528 -23.3121 1411.88 
83.8573 -23.0722 1412.35 64.4105 -23.577 1412.51 67.0419 -23.7576 1412.02 
67.9668 -24.0918 1411.89 65.6589 -24.4587 1412.33 69.1827 -25.2232 1411.83 
81.9065 -25.5098 1411.84 82.8182 -24.4803 1412.03 84.5136 -24.1207 1412.54 
67.3727 -25.663 1412.13 70.4822 -25.3508 1411.69 83.8669 -25.607 1412.39 
65.2172 -25.2816 1412.5 72.8678 -26.5759 1411.67 81.115 -26.764 1411.79 
66.3777 -26.9413 1412.42 69.0744 -26.4902 1411.96 68.2654 -26.8816 1412.1 
70.6033 -26.6832 1411.83 74.6058 -27.5105 1411.7 82.6393 -26.836 1412.16 
81.8757 -27.6618 1412.07 67.7761 -27.3206 1412.21 78.836 -28.3957 1411.77 
83.9168 -27.0538 1412.55 70.0497 -28.0309 1411.97 72.0457 -28.0515 1411.85 
73.309 -28.2017 1411.83 80.7141 -28.6252 1412 67.0834 -28.5859 1412.45 
71.2029 -28.5762 1411.93 76.0477 -28.7729 1411.81 83.0918 -28.3327 1412.48 
69.1812 -28.6085 1412.11 74.2998 -28.5462 1411.82 80.1491 -29.6671 1412.08 
68.7723 -29.8627 1412.3 77.4631 -29.6927 1411.93 71.3028 -30.0873 1412.01 
72.5966 -29.6842 1411.92 74.1062 -30.1009 1411.93 66.3597 -29.9678 1412.78 
70.3782 -30.0911 1412.1 75.8692 -30.1381 1411.94 78.6516 -29.9708 1412 
82.4295 -29.7684 1412.53 81.2352 -30.9944 1412.48 68.6335 -30.8507 1412.46 
70.3938 -30.9493 1412.2 77.1798 -31.8591 1412.14 80.0244 -31.3574 1412.34 
73.6029 -31.067 1411.98 75.2661 -31.6739 1412.04 78.8186 -31.3399 1412.2 
72.6791 -31.7652 1412.09 68.3159 -32.0164 1412.76 70.2918 -31.9781 1412.39 
72.0929 -32.1763 1412.21 74.3806 -32.0521 1412.07 76.0563 -32.4457 1412.15 
78.9223 -32.0804 1412.32 71.5017 -32.8009 1412.4 74.1408 -33.0336 1412.23 
79.6425 -32.9011 1412.57 72.373 -33.5366 1412.48 73.4086 -33.6239 1412.4 
75.4108 -33.1325 1412.24 76.9005 -33.3539 1412.35 78.0998 -33.1548 1412.42 
74.99 -34.2121 1412.5 76.2696 -34.4172 1412.57 77.2814 -34.1614 1412.56 
67.1169 -6.97678 1413.41 68.4869 -6.77431 1413.38 68.2043 -5.78177 1413.85 
69.9103 -7.60903 1412.99 70.1119 -6.43014 1413.49 71.0241 -7.53619 1413.04 
71.4149 -6.56419 1413.45 72.4038 -7.29986 1413.21 73.6227 -6.96002 1413.44 
72.9199 -5.87746 1413.85 68.7486 -7.65479 1413 64.1165 -6.89116 1413.85 
65.8316 -8.51053 1412.99 65.5636 -6.86136 1413.64 73.6935 -8.12566 1413.02 
74.798 -7.23356 1413.49 63.5139 -8.06434 1413.54 75.0774 -8.40545 1413.12 
75.8467 -7.86305 1413.45 65.1133 -9.20059 1412.91 76.4633 -8.61223 1413.33 
63.8192 -9.6197 1413.05 62.1127 -9.21248 1413.47 63.6679 -10.2201 1412.95 
76.6113 -10.3415 1412.85 77.3814 -9.06644 1413.44 77.535 -9.89527 1413.22 
60.5395 -9.15007 1413.75 61.9331 -10.5061 1413.23 78.6765 -10.3253 1413.46 
61.7362 -11.5406 1413.11 60.2044 -11.131 1413.46 63.314 -11.0183 1412.88 
78.5093 -11.8889 1412.94 79.6213 -12.3708 1413.19 80.0035 -11.4636 1413.61 
58.7967 -11.6025 1413.67 60.1017 -13.2729 1413.24 61.1722 -12.2827 1413.13 
81.4546 -13.8218 1413.47 62.6471 -12.9993 1412.78 62.2842 -14.204 1412.78 
81.0239 -14.7691 1413.03 61.188 -15.096 1412.93 59.2008 -14.6035 1413.33 
59.8926 -15.7236 1413.16 57.9783 -14.559 1413.59 82.7224 -14.9106 1413.67 
83.0755 -16.7078 1413.26 58.9458 -16.6015 1413.34 61.8743 -17.9331 1412.77 
60.8252 -18.6836 1412.98 83.1503 -18.6548 1412.76 58.6062 -18.2454 1413.46 
59.9647 -19.0274 1413.18 84.5318 -17.9402 1413.49 85.3495 -19.5225 1413.4 
60.5052 -20.3253 1413.12 59.3596 -20.1865 1413.38 61.9991 -20.9202 1412.83 
84.4778 -20.2324 1412.9 58.3755 -21.3039 1413.68 59.8835 -21.6887 1413.34 
86.3035 -21.1201 1413.45 84.8869 -21.3408 1412.86 60.3029 -22.7121 1413.32 
58.9454 -22.8475 1413.61 85.4558 -23.0113 1412.9 86.4925 -22.2708 1413.37 
59.7351 -24.2903 1413.51 61.2137 -23.8196 1413.21 87.5268 -23.9757 1413.7 
87.7054 -22.8368 1413.86 62.7645 -24.543 1412.95 85.8627 -24.4755 1413.02 
61.5475 -25.8192 1413.28 64.1626 -25.6262 1412.75 87.4233 -24.9378 1413.66 
63.7948 -26.6357 1412.92 85.6793 -26.1595 1413.04 86.2547 -25.488 1413.21 
65.0429 -26.8691 1412.69 84.6764 -27.286 1412.81 63.0172 -27.4063 1413.14 
87.2803 -26.2464 1413.69 61.557 -27.3437 1413.37 86.9315 -27.5215 1413.69 
85.3346 -27.94 1413.13 65.8532 -28.6722 1412.72 86.2899 -28.4229 1413.57 
63.7425 -29.0847 1413.16 84.4933 -29.3261 1413.05 83.6951 -29.5228 1412.83 
62.1575 -28.7659 1413.4 63.2879 -30.1422 1413.37 85.8499 -29.6601 1413.6 
65.2352 -30.8493 1413.11 82.8016 -31.4451 1412.92 83.9097 -30.91 1413.16 
85.0128 -30.7388 1413.5 63.1958 -30.775 1413.5 67.0701 -30.9483 1412.8 
64.6244 -31.5727 1413.34 66.7328 -32.1962 1413.07 63.8632 -31.9251 1413.59 
82.0829 -32.2565 1412.91 83.741 -32.3981 1413.43 66.4125 -33.4782 1413.36 
80.7042 -33.1755 1412.81 64.6809 -32.858 1413.6 69.2104 -33.1538 1412.87 
65.689 -33.4529 1413.5 67.9506 -33.6061 1413.16 81.5232 -33.5449 1413.1 
70.962 -34.0399 1412.84 78.8813 -34.1686 1412.75 82.6404 -33.7462 1413.49 
67.8887 -34.756 1413.4 80.638 -34.5881 1413.21 79.8221 -34.5764 1413.03 
69.7808 -34.5547 1413.14 73.7883 -34.7857 1412.74 81.7352 -34.6735 1413.54 
70.8984 -35.0507 1413.15 72.5686 -35.6666 1413.17 77.3289 -35.2983 1412.92 
78.4871 -35.2912 1413.05 69.2104 -35.4408 1413.41 70.4531 -36.1293 1413.47 
75.1009 -35.2637 1412.85 76.1363 -35.8504 1413.06 74.2555 -35.6985 1413.05 
79.5778 -35.9255 1413.49 71.8734 -36.6434 1413.53 76.9446 -36.5723 1413.4 
78.2205 -36.3877 1413.46 73.4194 -36.8726 1413.53 74.1658 -36.9883 1413.55 
75.0771 -36.8918 1413.5 72.6281 -37.7079 1413.81 69.7086 -5.21281 1414.08 
70.763 -4.32079 1414.55 68.5581 -4.26274 1414.62 66.1395 -5.58633 1414.13 
67.2612 -4.43103 1414.6 71.2829 -5.30883 1414.04 72.2825 -5.03883 1414.23 
73.0603 -4.48074 1414.62 73.8283 -5.27012 1414.26 75.2926 -5.50341 1414.41 
74.625 -4.91872 1414.59 62.7974 -5.86694 1414.44 64.2058 -5.44681 1414.43 
74.2361 -6.29093 1413.82 76.614 -6.10075 1414.46 76.0343 -5.52072 1414.61 
75.4121 -6.51594 1413.94 60.3664 -7.85529 1414.09 60.4886 -6.73208 1414.41 
58.938 -6.43925 1414.69 62.0183 -7.82471 1413.85 61.8805 -6.32674 1414.38 
76.882 -7.10121 1414.08 77.9383 -6.99848 1414.51 59.0194 -8.01564 1414.25 
[...]
POINT_DATA 20119
SCALARS scalars double
LOOKUP_TABLE default
13 13 13 13 13 13 13 13 13 
13 13 13 13 13 13 13 13 13 
13 13 13 13 13 13 13 13 13 
13 13 13 13 13 13 13 13 13 
13 13 13 13 13 13 13 13 13 
13 13 13 13 13 13 13 13 13 
13 13 13 13 13 13 13 13 13 
13 13 13 13 13 13 13 13 13 
13 13 13 13 13 13 13 13 13 
13 13 13 13 13 13 13 13 13 
13 13 13 13 13 13 13 13 13 
13 13 13 13 13 13 13 13 13 
13 13 13 13 13 13 13 13 13 
13 13 13 13 13 13 13 13 13 
13 13 13 13 13 13 13 13 13 
13 13 13 13 13 13 13 13 13 
13 13 13 13 13 13 13 13 13 
13 13 13 13 13 13 13 13 13 
13 13 13 13 13 13 13 13 13 
13 13 13 13 13 13 13 13 13 
13 13 13 13 13 13 13 13 13 
13 13 13 13 13 13 13 13 13 
13 13 13 13 13 13 13 13 13 
13 13 13 13 13 13 13 13 13 
13 13 13 13 13 13 13 13 13 
13 13 13 13 13 13 13 13 13 
13 13 13 13 13 13 13 13 13 
13 13 13 13 13 13 13 13 13 
13 13 13 13 13 13 13 13 13 
13 13 13 13 13 13 13 13 13 
13 13 13 13 13 13 13 13 13 
13 13 13 13 13 13 13 13 13 
13 13 13 13 13 13 13 13 13 
13 13 13 13 13 13 13 13 13 
13 13 13 13 13 13 13 13 13 
13 13 13 13 13 17 13 13 13 
13 13 17 13 13 13 17 13 13 
13 13 14 13 17 14 13 14 13 
14 14 13 13 13 13 14 13 13 
14 13 13 14 14 13 13 14 14 
13 14 14 13 14 14 13 14 14 
14 14 13 13 13 13 13 13 13 
13 13 13 13 13 13 13 13 13 
13 13 13 13 13 13 13 13 13 
13 13 13 13 13 13 13 13 13 
7 13 13 13 7 13 13 13 13 
13 13 13 7 13 13 13 13 13 
13 13 13 13 13 13 13 13 13 
13 13 13 13 13 13 13 13 13 
13 13 13 13 13 13 13 13 13 
13 13 13 13 17 13 13 13 17 
13 13 13 13 17 13 13 13 17 
13 17 17 14 13 13 13 17 13 
14 13 17 14 14 17 14 14 17 
17 14 14 17 14 17 17 17 17 
14 14 17 14 14 17 14 17 17 
14 14 14 14 13 14 17 14 14 
14 14 17 14 14 14 14 14 14 
14 14 14 14 14 14 14 14 14 
14 14 14 14 14 14 13 13 13 
13 13 13 13 13 13 13 13 13 
13 13 13 7 13 13 13 13 7 
7 7 7 7 13 7 7 13 13 
7 7 7 7 13 7 7 7 13 
7 7 7 7 7 7 13 13 7 
7 7 7 13 7 7 7 13 7 
13 7 7 13 8 13 8 7 8 
13 13 8 8 8 13 13 13 13 
13 13 13 13 13 13 13 13 13 
13 13 13 13 13 13 13 13 13 
13 13 13 17 13 17 13 13 17 
17 13 14 17 14 17 14 17 14 
17 17 17 14 17 17 14 14 14 
17 17 17 14 17 17 14 17 17 
17 14 17 14 17 14 14 14 14 
14 14 14 14 14 14 14 14 14 
14 14 14 14 13 13 13 13 13 
13 13 7 7 7 7 13 7 13 
13 7 7 7 13 13 13 7 7 
13 7 7 7 13 7 7 7 7 
13 13 7 7 7 13 7 7 7 
13 7 13 7 7 13 7 7 7 
13 7 7 7 7 13 7 8 8 
8 13 8 13 8 13 8 8 8 
8 8 8 13 13 8 8 8 8 
8 8 8 8 8 8 13 8 8 
8 13 8 13 13 13 13 13 13 
17 13 17 17 14 17 17 17 17 
17 14 14 17 17 17 14 14 17 
14 14 17 14 17 17 17 14 17 
17 14 17 17 14 14 17 17 14 
17 14 14 14 17 14 14 14 14 
14 14 14 14 14 7 7 7 7 
13 13 7 7 7 7 13 13 13 
13 7 7 7 7 7 7 7 13 
13 7 13 7 7 13 7 7 7 
13 13 7 7 13 7 7 7 7 
13 13 7 7 7 13 7 7 13 
7 8 7 13 7 8 8 8 8 
8 8 7 13 8 8 8 8 8 
13 13 8 8 8 8 8 8 8 
8 8 13 8 8 8 8 8 8 
8 8 8 13 13 8 8 8 8 
8 8 8 8 8 8 13 8 8 
8 8 8 13 8 13 8 8 13 
8 8 8 17 13 13 13 13 13 
17 13 13 13 13 13 13 13 13 
13 13 17 13 13 13 13 13 13 
13 13 17 14 13 13 13 13 13 
13 13 14 13 13 13 13 13 17 
13 13 13 14 13 13 13 17 13 
14 13 13 13 13 13 13 17 13 
13 13 13 13 13 13 13 14 13 
13 17 14 13 13 13 13 13 13 
13 13 13 17 14 13 13 13 13 
13 13 13 13 14 13 13 17 17 
14 14 17 17 17 14 14 14 17 
17 17 14 17 17 14 17 14 14 
17 17 14 14 14 14 14 14 14 
7 7 7 7 7 7 7 7 7 
7 7 7 7 13 13 13 7 7 
13 13 13 7 7 7 7 7 7 
13 13 13 7 7 7 7 7 13 
7 7 13 13 7 7 13 7 7 
7 13 7 13 7 7 8 8 8 
8 13 8 8 8 13 8 8 8 
8 8 8 8 13 8 8 8 8 
8 8 8 8 8 8 13 8 8 
8 8 8 8 8 8 13 8 8 
13 8 8 8 8 8 13 13 13 
13 13 13 13 13 13 13 8 13 
13 13 13 13 13 8 8 13 8 
13 13 13 13 13 13 13 13 17 
13 8 13 13 17 13 13 13 13 
13 13 17 14 13 13 13 13 13 
17 13 13 13 14 13 17 13 13 
13 14 13 13 13 17 13 13 13 
14 13 13 13 17 13 13 13 14 
13 13 13 13 13 13 14 13 17 
17 14 13 13 13 14 14 13 13 
14 14 13 13 13 14 14 14 13 
14 13 17 14 14 14 14 14 14 
14 14 17 14 17 14 14 17 14 
14 17 14 17 14 14 17 17 14 
17 14 14 17 14 14 14 17 14 
14 14 7 7 7 7 7 7 7 
7 7 7 7 7 7 7 13 7 
7 7 7 7 13 13 7 13 13 
7 7 13 7 13 7 7 7 13 
13 7 7 7 13 7 7 7 13 
13 7 7 8 13 8 8 8 8 
8 13 8 8 8 8 13 8 8 
8 13 8 8 8 13 8 8 8 
13 13 13 13 13 13 13 13 13 
13 13 13 13 13 8 13 8 13 
13 13 13 13 13 13 13 13 8 
13 13 8 13 13 13 13 13 13 
8 13 13 13 13 13 13 13 8 
13 13 13 13 13 13 8 8 13 
13 13 13 13 8 8 13 13 13 
13 8 13 13 13 8 13 13 13 
13 8 17 17 8 13 13 13 13 
13 13 8 17 17 14 13 13 13 
14 13 14 13 13 13 13 17 13 
13 14 13 13 17 13 14 14 13 
14 17 13 14 13 17 17 14 14 
14 14 17 14 13 14 17 17 14 
14 13 17 17 14 13 13 14 14 
13 17 17 14 14 14 14 17 14 
17 14 14 14 14 14 14 14 14 
14 14 14 17 14 14 17 14 17 
14 14 14 14 17 14 17 14 14 
17 14 17 17 17 17 14 14 17 
14 14 14 14 7 7 7 7 7 
7 7 7 7 7 7 7 7 7 
7 7 7 7 7 7 7 7 13 
13 13 13 13 7 7 13 7 7 
7 7 7 7 13 13 13 13 13 
13 7 7 7 13 13 7 7 7 
7 13 7 7 7 7 13 8 8 
13 8 8 8 8 13 13 8 8 
8 8 8 8 8 13 8 13 8 
13 8 13 13 13 13 13 13 13 
13 13 13 13 13 13 13 13 13 
13 13 13 13 13 13 13 13 8 
13 13 13 13 13 13 13 13 8 
13 13 13 13 13 8 13 13 13 
8 13 13 16 8 13 13 13 8 
13 13 16 13 13 8 13 8 13 
16 13 13 16 8 8 13 13 13 
8 13 13 16 13 13 8 13 13 
8 13 13 13 17 8 13 17 8 
13 13 13 13 13 13 8 13 17 
13 14 14 13 14 17 14 17 14 
14 17 17 17 14 14 14 17 14 
17 17 14 17 14 17 17 14 14 
14 17 17 14 17 17 14 17 14 
14 17 17 17 14 17 14 17 14 
14 14 14 14 17 17 14 14 14 
17 14 14 14 14 14 17 14 17 
17 14 17 17 14 14 14 17 17 
17 17 14 17 17 17 14 17 17 
17 14 14 14 14 14 14 17 7 
7 7 7 7 7 7 7 7 7 
7 7 7 7 7 7 7 7 7 
7 7 7 7 7 7 13 13 7 
13 7 13 7 7 7 7 13 7 
7 13 13 7 7 13 7 7 13 
7 7 7 13 8 7 7 8 8 
8 8 13 13 8 8 8 8 8 
13 8 8 13 13 8 7 7 13 
7 13 13 13 13 13 13 8 13 
13 13 16 7 13 7 13 13 13 
13 7 7 8 13 13 13 7 13 
13 16 8 13 13 13 7 16 13 
13 13 7 13 13 8 13 16 13 
16 13 13 13 13 13 16 13 13 
13 13 16 8 13 13 13 13 13 
16 8 8 13 13 13 13 13 16 
8 13 8 13 17 13 8 13 13 
8 13 13 13 17 8 13 13 13 
17 8 14 13 14 14 14 17 13 
17 14 14 17 14 14 17 17 17 
14 17 17 14 17 14 17 17 14 
14 17 14 14 17 14 17 14 17 
14 17 17 14 14 17 17 14 17 
17 17 14 14 14 14 14 14 14 
14 14 14 14 17 17 17 14 14 
17 14 17 17 14 14 17 17 14 
14 17 14 17 17 17 17 17 14 
14 14 14 14 14 14 7 7 7 
7 7 7 7 7 7 7 7 7 
7 7 7 7 7 7 7 7 13 
13 13 7 13 7 7 7 13 7 
13 7 13 13 7 7 7 13 7 
13 7 7 7 7 7 13 13 8 
13 13 8 8 16 7 7 13 13 
13 13 13 8 7 7 7 13 13 
13 13 16 8 7 7 13 7 7 
7 7 13 13 13 13 16 7 7 
7 16 8 7 7 7 13 13 13 
7 16 7 7 13 7 7 13 13 
16 16 7 13 13 8 13 8 8 
8 13 16 13 13 16 13 8 13 
16 13 13 13 8 16 13 8 13 
13 17 8 13 13 17 8 13 13 
13 17 8 8 14 13 17 8 14 
8 17 17 14 14 17 17 17 14 
17 14 17 17 14 14 17 17 14 
14 17 17 14 17 17 17 14 17 
14 14 17 17 17 17 14 14 14 
14 17 17 14 17 14 17 14 14 
17 14 14 14 17 14 14 14 14 
17 14 17 14 17 14 17 17 14 
17 17 14 14 17 17 14 17 17 
14 17 7 7 7 7 7 7 7 
7 7 7 7 7 7 7 7 7 
7 7 7 7 13 13 13 7 7 
7 7 7 7 13 13 13 7 7 
13 13 7 7 7 13 1 1 7 
1 1 13 7 13 8 16 16 8 
8 7 7 7 7 7 7 7 13 
13 7 7 7 16 13 13 13 13 
7 7 13 13 7 13 13 16 13 
13 16 7 7 8 7 7 13 7 
13 13 7 13 16 16 8 7 13 
7 13 16 16 7 7 13 8 13 
13 16 8 8 8 16 16 13 8 
8 13 13 13 13 16 13 16 16 
8 8 13 16 8 13 8 13 13 
17 17 13 13 8 14 14 13 13 
17 8 17 14 14 13 8 13 14 
13 17 8 14 17 8 17 14 14 
17 17 14 17 14 17 14 17 17 
14 14 14 17 17 17 14 17 17 
17 17 14 17 17 14 14 17 17 
14 17 17 17 17 17 14 14 17 
17 14 17 17 14 17 17 17 14 
14 14 17 14 17 14 14 14 14 
14 17 14 14 17 14 17 14 17 
14 17 17 14 14 17 14 17 17 
17 14 14 14 14 14 14 7 7 
7 7 7 7 7 7 7 7 7 
7 7 7 7 7 7 7 7 7 
7 12 12 7 7 7 7 7 12 
13 7 1 7 1 13 13 13 1 
1 1 1 1 1 13 13 1 13 
13 1 7 16 8 16 7 7 7 
7 7 8 7 7 7 7 7 7 
7 7 7 13 16 7 13 13 7 
7 7 7 7 7 13 13 13 13 
8 8 16 7 7 13 13 8 8 
7 7 16 8 7 13 13 13 13 
8 13 16 8 7 13 13 7 7 
13 8 7 8 13 13 13 8 16 
16 7 8 7 13 16 13 7 16 
8 8 13 8 13 8 16 13 8 
16 8 8 13 8 8 8 13 13 
16 8 8 8 13 13 13 8 16 
17 16 13 8 16 16 8 8 16 
17 14 13 16 16 8 14 16 17 
8 14 16 17 17 17 14 8 17 
17 14 17 17 14 17 17 17 17 
17 17 17 14 14 17 17 14 17 
17 17 17 17 14 14 17 17 17 
17 14 14 17 17 17 14 17 17 
17 17 14 14 14 17 17 14 17 
14 14 14 14 14 17 14 14 14 
17 17 14 17 14 14 17 17 14 
17 14 17 17 14 17 17 14 14 
17 17 14 14 7 7 7 7 7 
7 7 7 7 7 7 7 7 7 
7 7 7 7 7 7 12 12 7 
7 7 12 12 12 7 7 1 13 
13 1 1 13 1 1 1 1 1 
1 1 13 16 1 1 16 1 1 
7 7 7 7 7 7 7 1 2 
7 7 7 7 16 7 7 7 7 
7 2 7 7 2 7 7 7 7 
7 13 16 8 7 7 7 7 13 
13 13 16 7 13 13 13 7 7 
13 13 16 7 13 13 8 13 13 
16 7 8 13 16 7 7 13 13 
16 8 13 7 7 13 13 7 13 
16 8 13 16 16 7 8 8 13 
8 8 16 8 13 8 8 16 16 
8 16 8 16 8 8 16 16 8 
8 16 8 8 16 16 16 8 16 
8 14 16 16 17 16 8 16 17 
8 16 14 14 17 8 16 14 16 
17 8 14 8 17 8 17 17 17 
14 8 17 17 14 17 8 17 17 
17 17 14 14 17 17 14 14 17 
17 17 17 14 17 17 17 14 14 
14 17 17 17 17 17 14 17 17 
14 17 17 17 14 17 17 14 17 
17 17 14 14 14 14 17 17 14 
14 14 14 14 14 14 14 14 14 
14 14 17 17 14 17 17 17 14 
17 14 17 14 14 14 17 14 17 
17 14 17 17 14 14 14 14 14 
14 14 7 7 7 7 7 7 7 
7 7 7 7 7 7 7 7 7 
7 7 7 7 7 12 12 12 7 
12 1 1 12 12 1 1 1 1 
13 1 1 13 13 1 1 1 1 
1 13 13 1 1 1 16 1 16 
1 16 1 1 7 7 7 7 7 
7 7 7 7 7 7 7 7 7 
16 7 7 7 7 7 7 2 7 
2 7 7 7 13 7 13 16 13 
13 2 7 7 13 13 13 16 16 
2 13 7 7 13 16 2 8 13 
7 13 13 8 7 13 13 7 8 
8 13 8 8 7 7 16 8 13 
13 8 7 13 16 13 8 8 8 
8 8 16 16 16 8 8 16 8 
16 16 8 8 16 8 8 16 16 
16 8 16 8 8 16 16 16 8 
16 14 16 16 17 8 16 14 8 
16 8 14 16 17 16 14 16 17 
14 17 14 17 16 8 17 17 14 
17 17 8 17 14 8 17 17 17 
14 17 17 17 14 17 17 14 14 
17 17 14 14 17 17 17 17 14 
14 14 17 14 14 17 17 14 14 
17 14 14 14 17 14 14 14 14 
14 14 14 14 17 14 17 14 17 
17 14 14 14 17 14 17 14 17 
17 17 14 17 17 14 14 14 14 
14 14 7 7 7 7 7 7 7 
7 7 7 7 7 7 7 7 7 
7 7 12 12 12 12 12 1 1 
12 1 12 12 1 1 1 1 1 
1 16 13 1 1 1 1 16 1 
1 1 1 1 7 7 7 1 16 
7 7 7 7 7 7 7 7 7 
1 7 16 7 7 7 7 2 2 
2 7 7 7 7 16 2 12 13 
2 7 13 13 13 7 2 13 13 
16 7 7 13 2 7 13 16 2 
7 13 13 16 7 2 7 13 2 
8 7 7 16 13 16 7 16 8 
16 8 7 8 16 8 16 16 8 
8 8 8 16 16 8 8 8 8 
8 16 8 16 16 8 8 16 16 
8 16 8 16 16 8 8 8 16 
8 16 17 8 17 16 8 8 8 
14 16 17 16 8 14 14 8 17 
14 16 8 8 17 17 14 17 8 
14 17 17 17 17 17 8 14 8 
14 17 17 17 17 14 17 14 17 
14 17 14 17 17 14 17 17 14 
14 17 17 14 17 17 14 17 14 
14 14 14 14 14 14 14 14 14 
14 14 14 14 17 17 14 14 17 
17 14 17 14 17 14 14 14 14 
14 14 17 17 17 14 14 14 14 
14 14 7 7 7 7 7 7 7 
7 7 7 7 7 7 7 7 7 
7 7 7 1 12 12 12 12 1 
12 1 1 12 1 1 12 12 12 
1 1 12 1 1 1 1 1 1 
12 1 16 16 1 1 1 16 1 
16 1 1 1 7 7 7 7 7 
7 7 1 7 7 7 7 7 7 
7 2 7 2 7 7 7 2 7 
7 7 7 7 16 13 13 2 7 
13 16 2 13 7 7 7 16 2 
7 7 7 13 13 2 2 13 16 
16 16 2 7 7 16 16 7 16 
2 16 16 16 7 7 8 8 16 
16 16 16 8 8 16 8 8 16 
8 16 16 8 8 16 8 8 16 
16 8 16 16 16 8 16 8 8 
8 16 16 16 8 16 16 16 8 
16 17 8 16 17 8 8 14 16 
17 14 8 16 17 14 16 17 14 
17 8 14 17 14 17 17 8 14 
17 14 17 17 17 8 14 14 17 
14 14 17 14 14 17 14 17 17 
14 14 17 14 14 14 14 14 17 
14 14 14 14 14 14 17 14 14 
17 17 14 14 14 14 14 14 14 
14 17 14 17 17 17 17 14 17 
17 17 14 17 17 17 17 14 14 
17 14 17 17 14 14 14 14 14 
14 14 14 7 7 7 7 7 7 
7 7 7 7 7 7 7 7 1 
12 7 1 1 1 12 12 1 12 
12 12 12 1 1 1 12 1 12 
12 12 12 1 1 12 1 1 12 
16 1 16 1 1 1 1 16 16 
1 7 7 7 7 7 1 7 7 
7 16 16 7 7 7 1 1 7 
7 7 7 7 16 2 2 7 7 
2 7 7 7 12 7 7 16 2 
7 7 12 12 12 2 7 7 13 
7 7 13 13 13 16 7 2 16 
16 7 16 2 7 16 2 16 7 
7 16 16 2 16 16 16 7 2 
16 2 16 16 16 2 8 16 8 
16 8 16 16 8 8 16 16 16 
8 8 8 16 16 16 8 16 8 
16 16 16 16 8 8 8 8 16 
16 16 8 8 8 16 16 17 16 
8 8 16 8 17 8 16 8 8 
17 8 17 8 14 17 8 14 16 
16 17 8 14 14 8 14 17 14 
8 17 14 17 14 17 8 17 17 
17 14 14 14 17 17 17 14 14 
17 17 17 14 17 17 14 17 14 
17 14 14 14 14 14 17 14 14 
14 14 14 14 14 14 14 14 14 
14 14 14 17 17 17 14 14 17 
17 14 17 14 17 14 17 14 14 
17 17 14 14 14 14 14 14 14 
7 7 7 7 7 7 7 7 12 
12 12 7 7 12 1 1 7 7 
1 1 1 1 1 1 1 12 12 
12 1 1 1 1 12 1 12 12 
1 1 1 1 1 12 1 12 1 
1 12 1 1 1 1 16 1 7 
7 7 7 1 7 7 7 7 7 
1 1 7 7 7 7 7 7 7 
16 1 7 7 12 16 12 7 12 
12 7 12 16 2 2 7 12 16 
2 2 7 7 7 13 16 7 16 
2 13 7 7 7 16 7 16 16 
2 7 16 16 16 16 2 16 7 
16 7 2 16 7 16 16 16 16 
16 8 16 2 8 16 8 16 8 
8 8 16 8 16 16 8 16 8 
16 16 8 16 16 8 16 16 8 
8 16 16 8 16 16 8 16 17 
16 8 8 16 8 16 17 8 17 
16 17 8 14 14 17 8 17 17 
14 16 17 8 17 17 8 14 17 
16 14 17 14 17 8 14 8 17 
17 14 17 17 17 17 14 17 17 
14 14 17 14 14 17 14 15 15 
17 14 17 14 14 14 15 14 15 
17 14 14 14 14 17 14 14 14 
14 14 14 17 14 14 17 14 14 
17 14 17 14 17 17 17 17 14 
14 17 14 17 17 14 17 14 14 
17 17 14 14 14 14 14 14 14 
14 14 14 7 7 7 7 7 7 
7 12 1 7 7 7 7 12 1 
1 7 7 12 1 12 12 1 1 
12 1 12 1 12 12 1 1 12 
1 12 1 12 1 1 1 1 12 
7 7 7 7 7 1 7 7 7 
16 7 7 1 1 1 1 7 7 
7 1 7 16 7 7 7 12 12 
1 7 7 7 1 7 12 12 2 
7 7 16 2 2 7 12 12 12 
2 12 7 16 2 7 12 12 16 
2 13 2 7 13 13 16 16 7 
13 2 7 7 16 16 2 7 7 
16 16 2 16 7 16 7 16 16 
2 2 7 7 7 16 2 8 16 
2 8 16 16 8 16 16 16 16 
2 16 16 8 8 8 16 8 16 
8 16 8 8 8 16 8 16 8 
16 16 8 8 16 8 16 8 16 
8 8 16 8 16 16 8 17 8 
17 8 17 8 8 8 16 17 14 
8 14 17 8 14 15 14 15 17 
8 14 8 14 17 8 17 14 14 
15 14 14 14 15 14 14 17 14 
14 14 14 17 14 14 14 14 14 
14 14 14 17 14 14 14 14 14 
14 14 17 17 14 17 14 17 17 
14 17 14 14 17 14 17 14 14 
14 14 17 14 14 14 14 14 14 
12 7 12 7 7 7 7 1 1 
1 7 1 1 7 12 12 12 1 
1 1 1 7 12 12 1 12 12 
1 1 1 1 12 12 1 1 12 
1 12 1 1 12 12 12 1 1 
12 12 12 1 12 1 7 7 7 
7 7 7 1 1 7 7 7 7 
7 16 1 7 7 7 7 16 7 
7 1 7 12 12 12 12 1 1 
16 7 7 12 12 7 12 7 12 
16 2 7 7 2 2 12 12 16 
2 7 7 7 16 2 7 12 12 
16 7 16 7 16 16 16 16 16 
2 7 7 16 2 7 16 2 16 
7 16 16 2 16 16 7 16 16 
16 16 8 7 16 16 16 8 16 
8 16 2 16 16 8 16 16 2 
8 8 2 16 16 8 16 8 16 
16 8 8 8 16 16 8 8 8 
16 16 16 8 16 16 8 8 16 
16 16 16 8 16 16 8 8 8 
8 8 8 16 16 16 8 17 16 
17 16 8 8 8 14 17 17 16 
14 17 8 15 8 8 14 15 17 
8 15 14 15 17 14 17 14 15 
14 15 15 17 8 15 15 14 15 
17 14 14 15 15 17 14 15 17 
14 14 14 17 14 14 14 17 14 
17 14 14 14 17 14 17 14 17 
14 17 17 17 14 17 17 14 17 
14 17 17 14 14 14 14 14 14 
14 14 14 14 14 14 7 7 7 
1 7 7 7 12 12 1 1 12 
12 1 1 1 1 1 12 1 1 
1 1 1 1 1 1 12 1 12 
1 12 12 1 1 12 12 12 12 
12 1 12 7 7 7 7 7 7 
7 7 7 1 7 7 7 12 7 
12 12 1 7 7 7 12 12 16 
1 7 16 1 12 12 12 12 16 
16 1 1 7 1 7 7 12 12 
12 12 16 1 12 12 1 12 16 
12 12 12 16 2 7 1 16 16 
16 16 2 16 16 16 16 2 2 
7 1 7 16 2 7 16 16 16 
2 7 16 7 16 16 2 16 2 
16 16 16 8 8 2 8 16 16 
16 16 16 2 16 8 8 16 2 
2 8 16 16 2 8 2 8 16 
8 16 8 8 16 8 16 16 16 
8 16 8 16 8 8 8 16 16 
8 16 8 16 16 8 8 8 16 
16 17 8 16 8 8 8 14 15 
14 14 17 15 14 8 15 17 14 
8 14 17 14 15 17 8 14 14 
15 17 14 14 15 15 17 14 15 
14 14 14 14 14 14 14 14 17 
14 14 14 14 14 17 14 17 14 
14 17 14 17 14 17 17 14 17 
14 14 14 14 14 14 14 12 7 
12 12 1 1 7 1 1 12 12 
1 1 1 12 1 1 1 1 1 
12 1 1 12 12 12 1 1 12 
1 1 1 1 12 12 12 1 12 
12 1 1 1 7 7 12 1 7 
7 7 7 7 7 7 12 12 1 
12 12 12 1 12 1 12 1 1 
12 12 12 1 1 12 12 12 12 
2 1 1 12 12 1 1 12 12 
12 16 2 2 2 12 12 12 1 
1 12 12 16 1 12 12 16 1 
16 16 16 1 16 16 7 16 16 
16 16 16 7 2 7 16 16 16 
2 7 16 16 16 16 16 8 2 
8 16 16 8 8 16 8 16 8 
16 16 16 2 16 8 16 8 8 
16 16 2 16 16 2 16 8 8 
16 2 16 8 8 16 8 8 16 
16 8 8 8 16 16 16 8 8 
8 16 8 16 16 8 16 8 8 
16 16 8 8 17 8 8 8 17 
8 17 8 17 14 17 8 14 15 
14 17 15 8 14 15 15 14 8 
15 17 8 15 17 15 14 15 15 
8 14 17 14 14 14 17 14 14 
15 17 14 14 14 14 14 17 14 
14 14 17 17 14 17 17 14 17 
14 17 14 14 15 14 14 14 14 
14 14 14 14 1 1 6 12 1 
12 12 1 1 1 1 1 12 1 
1 1 1 1 1 1 12 12 1 
12 1 12 12 1 12 12 1 12 
12 1 12 12 12 1 1 1 12 
7 7 12 12 1 7 7 7 7 
7 7 7 12 12 12 12 12 1 
1 1 1 12 12 12 12 12 1 
1 12 12 16 1 16 1 12 12 
16 1 1 1 16 12 16 12 12 
16 2 12 12 1 12 12 1 2 
2 16 1 2 16 12 16 2 1 
16 16 2 16 16 16 1 1 2 
16 1 16 16 7 16 16 8 16 
2 16 16 8 2 8 16 16 2 
16 16 16 8 16 16 16 8 16 
16 2 2 8 16 16 8 16 2 
16 16 16 8 2 8 16 16 8 
8 16 16 8 8 8 8 16 8 
8 8 16 16 8 16 8 8 8 
16 8 17 8 17 8 15 8 15 
17 17 8 14 8 17 15 8 15 
8 14 15 14 14 15 15 17 9 
14 14 15 15 15 15 14 15 14 
15 15 17 14 14 14 15 14 14 
14 14 14 14 17 17 14 17 17 
17 17 14 17 14 15 15 14 14 
14 14 14 14 14 14 1 1 1 
6 6 1 1 1 1 12 12 1 
12 1 1 12 12 1 1 12 1 
1 12 1 1 12 12 12 12 12 
12 1 12 12 1 12 12 1 12 
12 12 1 12 12 12 7 7 7 
1 1 7 7 7 7 7 12 1 
7 12 12 1 1 12 1 1 1 
1 12 12 1 1 12 1 12 12 
1 12 12 12 12 12 1 1 1 
12 12 1 1 1 1 1 1 16 
2 1 2 1 1 1 12 16 12 
2 16 1 16 16 1 2 16 16 
1 16 2 1 16 2 2 16 16 
16 2 2 2 16 16 8 16 2 
16 16 16 16 8 2 16 16 8 
8 2 8 2 16 16 8 8 16 
16 16 8 16 16 16 2 2 8 
16 16 2 8 16 2 8 16 8 
8 16 16 8 8 8 16 8 16 
16 8 16 16 16 8 8 16 16 
8 16 8 8 16 15 8 8 8 
15 8 14 15 14 14 15 14 17 
15 17 15 8 15 17 15 17 14 
15 15 15 14 17 9 14 17 14 
17 14 15 14 14 15 17 14 15 
14 17 14 14 17 14 14 17 17 
14 14 15 17 14 15 14 14 15 
14 15 14 14 6 6 1 1 6 
6 12 1 1 12 1 12 1 1 
12 12 12 1 12 1 1 12 12 
1 12 12 1 12 12 12 12 1 
1 7 1 1 7 1 7 7 7 
7 12 12 12 1 1 12 1 1 
12 12 1 12 12 1 1 1 1 
12 12 1 12 12 12 12 1 12 
1 12 1 1 12 12 1 12 12 
1 1 1 12 12 1 1 16 2 
12 1 12 1 12 2 12 16 1 
16 1 12 2 1 1 2 16 16 
16 2 1 16 1 16 16 1 16 
1 16 16 2 2 16 2 16 16 
16 16 2 2 16 8 16 16 2 
8 16 16 16 8 16 16 16 8 
8 2 8 16 16 8 16 8 16 
16 2 8 16 16 16 16 2 8 
8 16 16 16 2 16 16 8 8 
8 8 16 8 16 8 8 8 8 
16 8 8 16 8 8 15 15 8 
8 8 8 15 8 8 17 8 14 
15 15 8 8 15 17 14 17 17 
14 8 15 17 15 9 14 17 15 
14 15 15 17 9 14 14 15 14 
15 9 17 14 15 17 14 15 14 
14 15 15 17 14 14 14 14 14 
17 14 14 17 14 17 17 17 14 
15 15 15 15 14 15 14 15 15 
14 14 15 14 14 14 1 1 6 
6 6 1 12 1 1 1 12 1 
1 12 12 12 12 12 12 12 1 
1 12 12 12 1 1 7 7 7 
12 12 1 1 1 1 1 1 12 
12 1 1 1 12 1 1 1 12 
1 12 1 1 1 1 12 12 12 
12 12 1 1 1 12 12 1 12 
16 2 12 1 12 2 12 12 1 
1 2 12 1 12 16 1 2 12 
12 2 1 16 1 2 2 1 16 
2 2 16 16 16 2 2 16 16 
2 2 2 2 16 2 2 16 16 
16 16 2 2 16 8 16 2 16 
2 16 16 16 8 16 2 16 8 
16 16 16 16 16 8 8 2 16 
16 16 16 8 8 8 8 8 8 
16 16 16 16 16 16 8 16 8 
8 8 16 15 8 8 15 15 9 
8 8 14 15 15 15 14 14 15 
15 14 17 15 14 15 15 14 9 
15 17 17 17 14 14 15 15 9 
14 17 14 9 15 14 14 15 14 
17 15 14 14 17 15 14 14 15 
15 14 14 14 15 14 15 14 15 
14 15 14 14 14 14 14 1 1 
6 6 1 1 6 6 1 1 12 
12 12 1 1 12 1 1 12 12 
1 12 12 1 1 12 1 12 1 
12 12 1 12 12 1 12 1 7 
7 7 7 1 1 12 12 12 1 
1 1 1 7 1 1 12 12 1 
1 1 1 1 1 12 12 12 12 
12 1 12 12 1 12 12 12 1 
1 12 1 12 1 2 1 16 2 
12 1 1 2 12 1 16 2 1 
2 1 2 1 16 16 12 1 1 
12 12 2 16 2 16 2 16 2 
2 2 2 16 16 2 16 2 16 
2 16 16 16 16 16 16 2 16 
2 2 16 16 2 16 16 2 16 
16 8 16 8 8 8 2 16 8 
16 2 8 2 8 8 16 2 8 
16 16 2 16 8 8 16 16 2 
8 8 16 8 16 16 16 8 16 
8 16 16 8 8 8 8 16 16 
8 8 16 15 8 8 15 15 9 
8 8 9 15 8 15 15 15 8 
15 14 15 9 14 15 15 14 9 
15 14 9 9 14 15 14 14 15 
9 9 15 15 15 17 15 17 14 
14 14 15 14 15 14 14 14 15 
14 14 15 15 14 15 15 14 15 
14 15 14 15 14 14 15 14 14 
1 6 1 1 6 6 6 1 6 
1 6 12 1 1 1 1 12 1 
12 12 1 1 1 12 12 1 1 
1 1 12 1 12 1 1 7 1 
12 12 12 1 1 1 12 12 12 
1 1 1 1 1 12 12 12 1 
12 12 12 12 1 12 12 1 12 
1 1 12 12 12 1 12 1 1 
1 2 1 12 12 1 2 1 2 
1 16 2 2 1 12 12 2 16 
1 1 12 2 1 16 1 2 16 
2 16 16 16 2 16 2 16 2 
16 2 2 2 16 2 16 16 2 
16 16 2 2 2 16 16 2 16 
8 8 16 16 2 16 16 8 2 
8 8 16 2 2 16 8 16 2 
16 2 16 8 16 8 16 8 16 
8 8 8 16 8 8 8 8 8 
16 8 16 8 8 15 16 8 8 
9 15 15 9 15 9 15 15 8 
15 14 14 8 15 15 9 14 15 
9 9 15 15 14 15 15 9 14 
15 15 9 14 15 9 9 15 14 
15 9 14 15 15 15 15 14 15 
15 14 15 15 14 14 14 15 14 
15 15 14 14 15 14 14 14 15 
15 14 14 14 15 15 15 6 1 
1 1 6 6 1 12 12 1 12 
12 1 12 12 12 12 12 1 1 
1 12 12 1 12 1 1 1 12 
12 12 1 1 1 12 12 1 1 
12 12 1 1 12 12 12 12 1 
1 1 1 12 1 12 1 1 12 
1 1 1 12 1 12 12 2 1 
2 12 12 12 2 1 1 16 1 
2 1 16 1 16 2 1 2 12 
12 16 2 2 12 16 2 16 16 
2 16 2 16 16 2 16 16 2 
2 16 16 16 16 2 2 16 2 
2 2 16 16 2 2 16 16 16 
2 2 16 2 16 2 2 8 16 
8 8 2 16 2 16 8 16 2 
8 16 16 16 16 8 2 16 8 
8 2 16 16 8 2 2 8 2 
16 16 8 16 8 16 8 8 16 
16 8 16 16 16 8 16 8 8 
8 15 9 9 8 15 15 9 8 
9 15 8 8 9 15 15 9 9 
14 15 15 14 15 14 9 15 15 
9 14 9 14 15 15 9 9 14 
14 15 14 15 9 15 15 9 14 
14 15 15 15 15 15 15 15 14 
15 14 14 15 15 14 15 14 14 
14 14 15 14 15 14 15 14 15 
15 6 6 6 1 6 6 1 1 
6 6 6 1 6 12 1 1 12 
1 1 1 12 1 12 12 1 1 
1 12 12 12 1 1 12 1 6 
6 1 1 1 12 12 12 12 1 
1 1 1 12 1 1 12 12 1 
12 12 12 1 1 12 1 12 12 
12 12 1 1 12 12 1 1 12 
12 12 1 12 2 12 12 1 1 
1 12 2 1 2 12 12 2 1 
2 2 1 12 12 1 12 16 2 
1 12 2 16 2 2 12 2 2 